version 2
run General-0-20210601-11:51:18-5676
attr configname General
attr datetime 20210601-11:51:18
attr experiment General
attr inifile omnetpp.ini
attr iterationvars ""
attr iterationvarsf ""
attr measurement ""
attr network Network
attr processid 5676
attr repetition 0
attr replication #0
attr resultdir results
attr runnumber 0
attr seedset 0

vector 0 Network.raspberry.ethernet queueLength:vector ETV
attr interpolationmode none
attr title "Queue length, vector"
attr unit ms
vector 1 Network.raspberry.ethernet busy:vector ETV
attr interpolationmode none
attr title "Busy, vector"
attr unit ms
vector 2 Network.raspberry.processor queueLength:vector ETV
attr interpolationmode none
attr title "Queue length, vector"
attr unit ms
vector 3 Network.raspberry.processor busy:vector ETV
attr interpolationmode none
attr title "Busy, vector"
attr unit ms
vector 4 Network.raspberry.ethernet dropped:vector ETV
attr interpolationmode none
attr title "Dropped jobs, vector"
attr unit ms
vector 5 Network.raspberry.processor dropped:vector ETV
attr interpolationmode none
attr title "Dropped jobs, vector"
attr unit ms
0	0	0	0
0	2	0.4	0
0	7	0.8	0
0	12	1.2	0
0	17	1.6	0
0	22	2	0
0	27	2.4	0
0	32	2.8	0
0	37	3.2	0
0	42	3.6	0
0	47	4	0
0	52	4.4	0
0	57	4.8	0
0	62	5.2	0
0	67	5.6	0
0	72	6	0
0	77	6.4	0
0	82	6.8	0
0	87	7.2	0
0	92	7.6	0
0	97	8	0
0	102	8.4	0
0	107	8.8	0
0	112	9.2	0
0	117	9.6	0
0	122	10	0
0	127	10.4	0
0	132	10.8	0
0	137	11.2	0
0	142	11.6	0
0	147	12	0
0	152	12.4	0
0	157	12.8	0
0	162	13.2	0
0	167	13.6	0
0	172	14	0
0	177	14.4	0
0	182	14.8	0
0	187	15.2	0
0	192	15.6	0
0	197	16	0
0	202	16.4	0
0	207	16.8	0
0	212	17.2	0
0	217	17.6	0
0	222	18	0
0	227	18.4	0
0	232	18.8	0
0	237	19.2	0
0	242	19.6	0
0	247	20	0
0	252	20.4	0
0	257	20.8	0
0	262	21.2	0
0	267	21.6	0
0	272	22	0
0	277	22.4	0
0	282	22.8	0
0	287	23.2	0
0	292	23.6	0
0	297	24	0
0	302	24.4	0
0	307	24.8	0
0	312	25.2	0
0	317	25.6	0
0	322	26	0
0	327	26.4	0
0	332	26.8	0
0	337	27.2	0
0	342	27.6	0
0	347	28	0
0	352	28.4	0
0	357	28.8	0
0	362	29.2	0
0	367	29.6	0
0	372	30	0
0	377	30.4	0
0	382	30.8	0
0	387	31.2	0
0	392	31.6	0
0	397	32	0
0	402	32.4	0
0	407	32.8	0
0	412	33.2	0
0	417	33.6	0
0	422	34	0
0	427	34.4	0
0	432	34.8	0
0	437	35.2	0
0	442	35.6	0
0	447	36	0
0	452	36.4	0
0	457	36.8	0
0	462	37.2	0
0	467	37.6	0
0	472	38	0
0	477	38.4	0
0	482	38.8	0
0	487	39.2	0
0	492	39.6	0
0	497	40	0
0	502	40.4	0
0	507	40.8	0
0	512	41.2	0
0	517	41.6	0
0	522	42	0
0	527	42.4	0
0	532	42.8	0
0	537	43.2	0
0	542	43.6	0
0	547	44	0
0	552	44.4	0
0	557	44.8	0
0	562	45.2	0
0	567	45.6	0
0	572	46	0
0	577	46.4	0
0	582	46.8	0
0	587	47.2	0
0	592	47.6	0
0	597	48	0
0	602	48.4	0
0	607	48.8	0
0	612	49.2	0
0	617	49.6	0
0	622	50	0
0	627	50.4	0
0	632	50.8	0
0	637	51.2	0
0	642	51.6	0
0	647	52	0
0	652	52.4	0
0	657	52.8	0
0	662	53.2	0
0	667	53.6	0
0	672	54	0
0	677	54.4	0
0	682	54.8	0
0	687	55.2	0
0	692	55.6	0
0	697	56	0
0	702	56.4	0
0	707	56.8	0
0	712	57.2	0
0	717	57.6	0
0	722	58	0
0	727	58.4	0
0	732	58.8	0
0	737	59.2	0
0	742	59.6	0
0	747	60	0
0	752	60.4	0
0	757	60.8	0
0	762	61.2	0
0	767	61.6	0
0	772	62	0
0	777	62.4	0
0	782	62.8	0
0	787	63.2	0
0	792	63.6	0
0	797	64	0
0	802	64.4	0
0	807	64.8	0
0	812	65.2	0
0	817	65.6	0
0	822	66	0
0	827	66.4	0
0	832	66.8	0
0	837	67.2	0
0	842	67.6	0
0	847	68	0
0	852	68.4	0
0	857	68.8	0
0	862	69.2	0
0	867	69.6	0
0	872	70	0
0	877	70.4	0
0	882	70.8	0
0	887	71.2	0
0	892	71.6	0
0	897	72	0
0	902	72.4	0
0	907	72.8	0
0	912	73.2	0
0	917	73.6	0
0	922	74	0
0	927	74.4	0
0	932	74.8	0
0	937	75.2	0
0	942	75.6	0
0	947	76	0
0	952	76.4	0
0	957	76.8	0
0	962	77.2	0
0	967	77.6	0
0	972	78	0
0	977	78.4	0
0	982	78.8	0
0	987	79.2	0
0	992	79.6	0
0	997	80	0
0	1002	80.4	0
0	1007	80.8	0
0	1012	81.2	0
0	1017	81.6	0
0	1022	82	0
0	1027	82.4	0
0	1032	82.8	0
0	1037	83.2	0
0	1042	83.6	0
0	1047	84	0
0	1052	84.4	0
0	1057	84.8	0
0	1062	85.2	0
0	1067	85.6	0
0	1072	86	0
0	1077	86.4	0
0	1082	86.8	0
0	1087	87.2	0
0	1092	87.6	0
0	1097	88	0
0	1102	88.4	0
0	1107	88.8	0
0	1112	89.2	0
0	1117	89.6	0
0	1122	90	0
0	1127	90.4	0
0	1132	90.8	0
0	1137	91.2	0
0	1142	91.6	0
0	1147	92	0
0	1152	92.4	0
0	1157	92.8	0
0	1162	93.2	0
0	1167	93.6	0
0	1172	94	0
0	1177	94.4	0
0	1182	94.8	0
0	1187	95.2	0
0	1192	95.6	0
0	1197	96	0
0	1202	96.4	0
0	1207	96.8	0
0	1212	97.2	0
0	1217	97.6	0
0	1222	98	0
0	1227	98.4	0
0	1232	98.8	0
0	1237	99.2	0
0	1242	99.6	0
0	1247	100	0
0	1252	100.4	0
0	1257	100.8	0
0	1262	101.2	0
0	1267	101.6	0
0	1272	102	0
0	1277	102.4	0
0	1282	102.8	0
0	1287	103.2	0
0	1292	103.6	0
0	1297	104	0
0	1302	104.4	0
0	1307	104.8	0
0	1312	105.2	0
0	1317	105.6	0
0	1322	106	0
0	1327	106.4	0
0	1332	106.8	0
0	1337	107.2	0
0	1342	107.6	0
0	1347	108	0
0	1352	108.4	0
0	1357	108.8	0
0	1362	109.2	0
0	1367	109.6	0
0	1372	110	0
0	1377	110.4	0
0	1382	110.8	0
0	1387	111.2	0
0	1392	111.6	0
0	1397	112	0
0	1402	112.4	0
0	1407	112.8	0
0	1412	113.2	0
0	1417	113.6	0
0	1422	114	0
0	1427	114.4	0
0	1432	114.8	0
0	1437	115.2	0
0	1442	115.6	0
0	1447	116	0
0	1452	116.4	0
0	1457	116.8	0
0	1462	117.2	0
0	1467	117.6	0
0	1472	118	0
0	1477	118.4	0
0	1482	118.8	0
0	1487	119.2	0
0	1492	119.6	0
0	1497	120	0
0	1502	120.4	0
0	1507	120.8	0
0	1512	121.2	0
0	1517	121.6	0
0	1522	122	0
0	1527	122.4	0
0	1532	122.8	0
0	1537	123.2	0
0	1542	123.6	0
0	1547	124	0
0	1552	124.4	0
0	1557	124.8	0
0	1562	125.2	0
0	1567	125.6	0
0	1572	126	0
0	1577	126.4	0
0	1582	126.8	0
0	1587	127.2	0
0	1592	127.6	0
0	1597	128	0
0	1602	128.4	0
0	1607	128.8	0
0	1612	129.2	0
0	1617	129.6	0
0	1622	130	0
0	1627	130.4	0
0	1632	130.8	0
0	1637	131.2	0
0	1642	131.6	0
0	1647	132	0
0	1652	132.4	0
0	1657	132.8	0
0	1662	133.2	0
0	1667	133.6	0
0	1672	134	0
0	1677	134.4	0
0	1682	134.8	0
0	1687	135.2	0
0	1692	135.6	0
0	1697	136	0
0	1702	136.4	0
0	1707	136.8	0
0	1712	137.2	0
0	1717	137.6	0
0	1722	138	0
0	1727	138.4	0
0	1732	138.8	0
0	1737	139.2	0
0	1742	139.6	0
0	1747	140	0
0	1752	140.4	0
0	1757	140.8	0
0	1762	141.2	0
0	1767	141.6	0
0	1772	142	0
0	1777	142.4	0
0	1782	142.8	0
0	1787	143.2	0
0	1792	143.6	0
0	1797	144	0
0	1802	144.4	0
0	1807	144.8	0
0	1812	145.2	0
0	1817	145.6	0
0	1822	146	0
0	1827	146.4	0
0	1832	146.8	0
0	1837	147.2	0
0	1842	147.6	0
0	1847	148	0
0	1852	148.4	0
0	1857	148.8	0
0	1862	149.2	0
0	1867	149.6	0
0	1872	150	0
0	1877	150.4	0
0	1882	150.8	0
0	1887	151.2	0
0	1892	151.6	0
0	1897	152	0
0	1902	152.4	0
0	1907	152.8	0
0	1912	153.2	0
0	1917	153.6	0
0	1922	154	0
0	1927	154.4	0
0	1932	154.8	0
0	1937	155.2	0
0	1942	155.6	0
0	1947	156	0
0	1952	156.4	0
0	1957	156.8	0
0	1962	157.2	0
0	1967	157.6	0
0	1972	158	0
0	1977	158.4	0
0	1982	158.8	0
0	1987	159.2	0
0	1992	159.6	0
0	1997	160	0
0	2002	160.4	0
0	2007	160.8	0
0	2012	161.2	0
0	2017	161.6	0
0	2022	162	0
0	2027	162.4	0
0	2032	162.8	0
0	2037	163.2	0
0	2042	163.6	0
0	2047	164	0
0	2052	164.4	0
0	2057	164.8	0
0	2062	165.2	0
0	2067	165.6	0
0	2072	166	0
0	2077	166.4	0
0	2082	166.8	0
0	2087	167.2	0
0	2092	167.6	0
0	2097	168	0
0	2102	168.4	0
0	2107	168.8	0
0	2112	169.2	0
0	2117	169.6	0
0	2122	170	0
0	2127	170.4	0
0	2132	170.8	0
0	2137	171.2	0
0	2142	171.6	0
0	2147	172	0
0	2152	172.4	0
0	2157	172.8	0
0	2162	173.2	0
0	2167	173.6	0
0	2172	174	0
0	2177	174.4	0
0	2182	174.8	0
0	2187	175.2	0
0	2192	175.6	0
0	2197	176	0
0	2202	176.4	0
0	2207	176.8	0
0	2212	177.2	0
0	2217	177.6	0
0	2222	178	0
0	2227	178.4	0
0	2232	178.8	0
0	2237	179.2	0
0	2242	179.6	0
0	2247	180	0
0	2252	180.4	0
0	2257	180.8	0
0	2262	181.2	0
0	2267	181.6	0
0	2272	182	0
0	2277	182.4	0
0	2282	182.8	0
0	2287	183.2	0
0	2292	183.6	0
0	2297	184	0
0	2302	184.4	0
0	2307	184.8	0
0	2312	185.2	0
0	2317	185.6	0
0	2322	186	0
0	2327	186.4	0
0	2332	186.8	0
0	2337	187.2	0
0	2342	187.6	0
0	2347	188	0
0	2352	188.4	0
0	2357	188.8	0
0	2362	189.2	0
0	2367	189.6	0
0	2372	190	0
0	2377	190.4	0
0	2382	190.8	0
0	2387	191.2	0
0	2392	191.6	0
0	2397	192	0
0	2402	192.4	0
0	2407	192.8	0
0	2412	193.2	0
0	2417	193.6	0
0	2422	194	0
0	2427	194.4	0
0	2432	194.8	0
0	2437	195.2	0
0	2442	195.6	0
0	2447	196	0
0	2452	196.4	0
0	2457	196.8	0
0	2462	197.2	0
0	2467	197.6	0
0	2472	198	0
0	2477	198.4	0
0	2482	198.8	0
0	2487	199.2	0
0	2492	199.6	0
0	2497	200	0
0	2502	200.4	0
0	2507	200.8	0
0	2512	201.2	0
0	2517	201.6	0
0	2522	202	0
0	2527	202.4	0
0	2532	202.8	0
0	2537	203.2	0
0	2542	203.6	0
0	2547	204	0
0	2552	204.4	0
0	2557	204.8	0
0	2562	205.2	0
0	2567	205.6	0
0	2572	206	0
0	2577	206.4	0
0	2582	206.8	0
0	2587	207.2	0
0	2592	207.6	0
0	2597	208	0
0	2602	208.4	0
0	2607	208.8	0
0	2612	209.2	0
0	2617	209.6	0
0	2622	210	0
0	2627	210.4	0
0	2632	210.8	0
0	2637	211.2	0
0	2642	211.6	0
0	2647	212	0
0	2652	212.4	0
0	2657	212.8	0
0	2662	213.2	0
0	2667	213.6	0
0	2672	214	0
0	2677	214.4	0
0	2682	214.8	0
0	2687	215.2	0
0	2692	215.6	0
0	2697	216	0
0	2702	216.4	0
0	2707	216.8	0
0	2712	217.2	0
0	2717	217.6	0
0	2722	218	0
0	2727	218.4	0
0	2732	218.8	0
0	2737	219.2	0
0	2742	219.6	0
0	2747	220	0
0	2752	220.4	0
0	2757	220.8	0
0	2762	221.2	0
0	2767	221.6	0
0	2772	222	0
0	2777	222.4	0
0	2782	222.8	0
0	2787	223.2	0
0	2792	223.6	0
0	2797	224	0
0	2802	224.4	0
0	2807	224.8	0
0	2812	225.2	0
0	2817	225.6	0
0	2822	226	0
0	2827	226.4	0
0	2832	226.8	0
0	2837	227.2	0
0	2842	227.6	0
0	2847	228	0
0	2852	228.4	0
0	2857	228.8	0
0	2862	229.2	0
0	2867	229.6	0
0	2872	230	0
0	2877	230.4	0
0	2882	230.8	0
0	2887	231.2	0
0	2892	231.6	0
0	2897	232	0
0	2902	232.4	0
0	2907	232.8	0
0	2912	233.2	0
0	2917	233.6	0
0	2922	234	0
0	2927	234.4	0
0	2932	234.8	0
0	2937	235.2	0
0	2942	235.6	0
0	2947	236	0
0	2952	236.4	0
0	2957	236.8	0
0	2962	237.2	0
0	2967	237.6	0
0	2972	238	0
0	2977	238.4	0
0	2982	238.8	0
0	2987	239.2	0
0	2992	239.6	0
0	2997	240	0
0	3002	240.4	0
0	3007	240.8	0
0	3012	241.2	0
0	3017	241.6	0
0	3022	242	0
0	3027	242.4	0
0	3032	242.8	0
0	3037	243.2	0
0	3042	243.6	0
0	3047	244	0
0	3052	244.4	0
0	3057	244.8	0
0	3062	245.2	0
0	3067	245.6	0
0	3072	246	0
0	3077	246.4	0
0	3082	246.8	0
0	3087	247.2	0
0	3092	247.6	0
0	3097	248	0
0	3102	248.4	0
0	3107	248.8	0
0	3112	249.2	0
0	3117	249.6	0
0	3122	250	0
0	3127	250.4	0
0	3132	250.8	0
0	3137	251.2	0
0	3142	251.6	0
0	3147	252	0
0	3152	252.4	0
0	3157	252.8	0
0	3162	253.2	0
0	3167	253.6	0
0	3172	254	0
0	3177	254.4	0
0	3182	254.8	0
0	3187	255.2	0
0	3192	255.6	0
0	3197	256	0
0	3202	256.4	0
0	3207	256.8	0
0	3212	257.2	0
0	3217	257.6	0
0	3222	258	0
0	3227	258.4	0
0	3232	258.8	0
0	3237	259.2	0
0	3242	259.6	0
0	3247	260	0
0	3252	260.4	0
0	3257	260.8	0
0	3262	261.2	0
0	3267	261.6	0
0	3272	262	0
0	3277	262.4	0
0	3282	262.8	0
0	3287	263.2	0
0	3292	263.6	0
0	3297	264	0
0	3302	264.4	0
0	3307	264.8	0
0	3312	265.2	0
0	3317	265.6	0
0	3322	266	0
0	3327	266.4	0
0	3332	266.8	0
0	3337	267.2	0
0	3342	267.6	0
0	3347	268	0
0	3352	268.4	0
0	3357	268.8	0
0	3362	269.2	0
0	3367	269.6	0
0	3372	270	0
0	3377	270.4	0
0	3382	270.8	0
0	3387	271.2	0
0	3392	271.6	0
0	3397	272	0
0	3402	272.4	0
0	3407	272.8	0
0	3412	273.2	0
0	3417	273.6	0
0	3422	274	0
0	3427	274.4	0
0	3432	274.8	0
0	3437	275.2	0
0	3442	275.6	0
0	3447	276	0
0	3452	276.4	0
0	3457	276.8	0
0	3462	277.2	0
0	3467	277.6	0
0	3472	278	0
0	3477	278.4	0
0	3482	278.8	0
0	3487	279.2	0
0	3492	279.6	0
0	3497	280	0
0	3502	280.4	0
0	3507	280.8	0
0	3512	281.2	0
0	3517	281.6	0
0	3522	282	0
0	3527	282.4	0
0	3532	282.8	0
0	3537	283.2	0
0	3542	283.6	0
0	3547	284	0
0	3552	284.4	0
0	3557	284.8	0
0	3562	285.2	0
0	3567	285.6	0
0	3572	286	0
0	3577	286.4	0
0	3582	286.8	0
0	3587	287.2	0
0	3592	287.6	0
0	3597	288	0
0	3602	288.4	0
0	3607	288.8	0
0	3612	289.2	0
0	3617	289.6	0
0	3622	290	0
0	3627	290.4	0
0	3632	290.8	0
0	3637	291.2	0
0	3642	291.6	0
0	3647	292	0
0	3652	292.4	0
0	3657	292.8	0
0	3662	293.2	0
0	3667	293.6	0
0	3672	294	0
0	3677	294.4	0
0	3682	294.8	0
0	3687	295.2	0
0	3692	295.6	0
0	3697	296	0
0	3702	296.4	0
0	3707	296.8	0
0	3712	297.2	0
0	3717	297.6	0
0	3722	298	0
0	3727	298.4	0
0	3732	298.8	0
0	3737	299.2	0
0	3742	299.6	0
0	3747	300	0
0	3752	300.4	0
0	3757	300.8	0
0	3762	301.2	0
0	3767	301.6	0
0	3772	302	0
0	3777	302.4	0
0	3782	302.8	0
0	3787	303.2	0
0	3792	303.6	0
0	3797	304	0
0	3802	304.4	0
0	3807	304.8	0
0	3812	305.2	0
0	3817	305.6	0
0	3822	306	0
0	3827	306.4	0
0	3832	306.8	0
0	3837	307.2	0
0	3842	307.6	0
0	3847	308	0
0	3852	308.4	0
0	3857	308.8	0
0	3862	309.2	0
0	3867	309.6	0
0	3872	310	0
0	3877	310.4	0
0	3882	310.8	0
0	3887	311.2	0
0	3892	311.6	0
0	3897	312	0
0	3902	312.4	0
0	3907	312.8	0
0	3912	313.2	0
0	3917	313.6	0
0	3922	314	0
0	3927	314.4	0
0	3932	314.8	0
0	3937	315.2	0
0	3942	315.6	0
0	3947	316	0
0	3952	316.4	0
0	3957	316.8	0
0	3962	317.2	0
0	3967	317.6	0
0	3972	318	0
0	3977	318.4	0
0	3982	318.8	0
0	3987	319.2	0
0	3992	319.6	0
0	3997	320	0
0	4002	320.4	0
0	4007	320.8	0
0	4012	321.2	0
0	4017	321.6	0
0	4022	322	0
0	4027	322.4	0
0	4032	322.8	0
0	4037	323.2	0
0	4042	323.6	0
0	4047	324	0
0	4052	324.4	0
0	4057	324.8	0
0	4062	325.2	0
0	4067	325.6	0
0	4072	326	0
0	4077	326.4	0
0	4082	326.8	0
0	4087	327.2	0
0	4092	327.6	0
0	4097	328	0
0	4102	328.4	0
0	4107	328.8	0
0	4112	329.2	0
0	4117	329.6	0
0	4122	330	0
0	4127	330.4	0
0	4132	330.8	0
0	4137	331.2	0
0	4142	331.6	0
0	4147	332	0
0	4152	332.4	0
0	4157	332.8	0
0	4162	333.2	0
0	4167	333.6	0
0	4172	334	0
0	4177	334.4	0
0	4182	334.8	0
0	4187	335.2	0
0	4192	335.6	0
0	4197	336	0
0	4202	336.4	0
0	4207	336.8	0
0	4212	337.2	0
0	4217	337.6	0
0	4222	338	0
0	4227	338.4	0
0	4232	338.8	0
0	4237	339.2	0
0	4242	339.6	0
0	4247	340	0
0	4252	340.4	0
0	4257	340.8	0
0	4262	341.2	0
0	4267	341.6	0
0	4272	342	0
0	4277	342.4	0
0	4282	342.8	0
0	4287	343.2	0
0	4292	343.6	0
0	4297	344	0
0	4302	344.4	0
0	4307	344.8	0
0	4312	345.2	0
0	4317	345.6	0
0	4322	346	0
0	4327	346.4	0
0	4332	346.8	0
0	4337	347.2	0
0	4342	347.6	0
0	4347	348	0
0	4352	348.4	0
0	4357	348.8	0
0	4362	349.2	0
0	4367	349.6	0
0	4372	350	0
0	4377	350.4	0
0	4382	350.8	0
0	4387	351.2	0
0	4392	351.6	0
0	4397	352	0
0	4402	352.4	0
0	4407	352.8	0
0	4412	353.2	0
0	4417	353.6	0
0	4422	354	0
0	4427	354.4	0
0	4432	354.8	0
0	4437	355.2	0
0	4442	355.6	0
0	4447	356	0
0	4452	356.4	0
0	4457	356.8	0
0	4462	357.2	0
0	4467	357.6	0
0	4472	358	0
0	4477	358.4	0
0	4482	358.8	0
0	4487	359.2	0
0	4492	359.6	0
0	4497	360	0
0	4502	360.4	0
0	4507	360.8	0
0	4512	361.2	0
0	4517	361.6	0
0	4522	362	0
0	4527	362.4	0
0	4532	362.8	0
0	4537	363.2	0
0	4542	363.6	0
0	4547	364	0
0	4552	364.4	0
0	4557	364.8	0
0	4562	365.2	0
0	4567	365.6	0
0	4572	366	0
0	4577	366.4	0
0	4582	366.8	0
0	4587	367.2	0
0	4592	367.6	0
0	4597	368	0
0	4602	368.4	0
0	4607	368.8	0
0	4612	369.2	0
0	4617	369.6	0
0	4622	370	0
0	4627	370.4	0
0	4632	370.8	0
0	4637	371.2	0
0	4642	371.6	0
0	4647	372	0
0	4652	372.4	0
0	4657	372.8	0
0	4662	373.2	0
0	4667	373.6	0
0	4672	374	0
0	4677	374.4	0
0	4682	374.8	0
0	4687	375.2	0
0	4692	375.6	0
0	4697	376	0
0	4702	376.4	0
0	4707	376.8	0
0	4712	377.2	0
0	4717	377.6	0
0	4722	378	0
0	4727	378.4	0
0	4732	378.8	0
0	4737	379.2	0
0	4742	379.6	0
0	4747	380	0
0	4752	380.4	0
0	4757	380.8	0
0	4762	381.2	0
0	4767	381.6	0
0	4772	382	0
0	4777	382.4	0
0	4782	382.8	0
0	4787	383.2	0
0	4792	383.6	0
0	4797	384	0
0	4802	384.4	0
0	4807	384.8	0
0	4812	385.2	0
0	4817	385.6	0
0	4822	386	0
0	4827	386.4	0
0	4832	386.8	0
0	4837	387.2	0
0	4842	387.6	0
0	4847	388	0
0	4852	388.4	0
0	4857	388.8	0
0	4862	389.2	0
0	4867	389.6	0
0	4872	390	0
0	4877	390.4	0
0	4882	390.8	0
0	4887	391.2	0
0	4892	391.6	0
0	4897	392	0
0	4902	392.4	0
0	4907	392.8	0
0	4912	393.2	0
0	4917	393.6	0
0	4922	394	0
0	4927	394.4	0
0	4932	394.8	0
0	4937	395.2	0
0	4942	395.6	0
0	4947	396	0
0	4952	396.4	0
0	4957	396.8	0
0	4962	397.2	0
0	4967	397.6	0
0	4972	398	0
0	4977	398.4	0
0	4982	398.8	0
0	4987	399.2	0
0	4992	399.6	0
0	4997	400	0
0	5002	400.4	0
0	5007	400.8	0
0	5012	401.2	0
0	5017	401.6	0
0	5022	402	0
0	5027	402.4	0
0	5032	402.8	0
0	5037	403.2	0
0	5042	403.6	0
0	5047	404	0
0	5052	404.4	0
0	5057	404.8	0
0	5062	405.2	0
0	5067	405.6	0
0	5072	406	0
0	5077	406.4	0
0	5082	406.8	0
0	5087	407.2	0
0	5092	407.6	0
0	5097	408	0
0	5102	408.4	0
0	5107	408.8	0
0	5112	409.2	0
0	5117	409.6	0
0	5122	410	0
0	5127	410.4	0
0	5132	410.8	0
0	5137	411.2	0
0	5142	411.6	0
0	5147	412	0
0	5152	412.4	0
0	5157	412.8	0
0	5162	413.2	0
0	5167	413.6	0
0	5172	414	0
0	5177	414.4	0
0	5182	414.8	0
0	5187	415.2	0
0	5192	415.6	0
0	5197	416	0
0	5202	416.4	0
0	5207	416.8	0
0	5212	417.2	0
0	5217	417.6	0
0	5222	418	0
0	5227	418.4	0
0	5232	418.8	0
0	5237	419.2	0
0	5242	419.6	0
0	5247	420	0
0	5252	420.4	0
0	5257	420.8	0
0	5262	421.2	0
0	5267	421.6	0
0	5272	422	0
0	5277	422.4	0
0	5282	422.8	0
0	5287	423.2	0
0	5292	423.6	0
0	5297	424	0
0	5302	424.4	0
0	5307	424.8	0
0	5312	425.2	0
0	5317	425.6	0
0	5322	426	0
0	5327	426.4	0
0	5332	426.8	0
0	5337	427.2	0
0	5342	427.6	0
0	5347	428	0
0	5352	428.4	0
0	5357	428.8	0
0	5362	429.2	0
0	5367	429.6	0
0	5372	430	0
0	5377	430.4	0
0	5382	430.8	0
0	5387	431.2	0
0	5392	431.6	0
0	5397	432	0
0	5402	432.4	0
0	5407	432.8	0
0	5412	433.2	0
0	5417	433.6	0
0	5422	434	0
0	5427	434.4	0
0	5432	434.8	0
0	5437	435.2	0
0	5442	435.6	0
0	5447	436	0
0	5452	436.4	0
0	5457	436.8	0
0	5462	437.2	0
0	5467	437.6	0
0	5472	438	0
0	5477	438.4	0
0	5482	438.8	0
0	5487	439.2	0
0	5492	439.6	0
0	5497	440	0
0	5502	440.4	0
0	5507	440.8	0
0	5512	441.2	0
0	5517	441.6	0
0	5522	442	0
0	5527	442.4	0
0	5532	442.8	0
0	5537	443.2	0
0	5542	443.6	0
0	5547	444	0
0	5552	444.4	0
0	5557	444.8	0
0	5562	445.2	0
0	5567	445.6	0
0	5572	446	0
0	5577	446.4	0
0	5582	446.8	0
0	5587	447.2	0
0	5592	447.6	0
0	5597	448	0
0	5602	448.4	0
0	5607	448.8	0
0	5612	449.2	0
0	5617	449.6	0
0	5622	450	0
0	5627	450.4	0
0	5632	450.8	0
0	5637	451.2	0
0	5642	451.6	0
0	5647	452	0
0	5652	452.4	0
0	5657	452.8	0
0	5662	453.2	0
0	5667	453.6	0
0	5672	454	0
0	5677	454.4	0
0	5682	454.8	0
0	5687	455.2	0
0	5692	455.6	0
0	5697	456	0
0	5702	456.4	0
0	5707	456.8	0
0	5712	457.2	0
0	5717	457.6	0
0	5722	458	0
0	5727	458.4	0
0	5732	458.8	0
0	5737	459.2	0
0	5742	459.6	0
0	5747	460	0
0	5752	460.4	0
0	5757	460.8	0
0	5762	461.2	0
0	5767	461.6	0
0	5772	462	0
0	5777	462.4	0
0	5782	462.8	0
0	5787	463.2	0
0	5792	463.6	0
0	5797	464	0
0	5802	464.4	0
0	5807	464.8	0
0	5812	465.2	0
0	5817	465.6	0
0	5822	466	0
0	5827	466.4	0
0	5832	466.8	0
0	5837	467.2	0
0	5842	467.6	0
0	5847	468	0
0	5852	468.4	0
0	5857	468.8	0
0	5862	469.2	0
0	5867	469.6	0
0	5872	470	0
0	5877	470.4	0
0	5882	470.8	0
0	5887	471.2	0
0	5892	471.6	0
0	5897	472	0
0	5902	472.4	0
0	5907	472.8	0
0	5912	473.2	0
0	5917	473.6	0
0	5922	474	0
0	5927	474.4	0
0	5932	474.8	0
0	5937	475.2	0
0	5942	475.6	0
0	5947	476	0
0	5952	476.4	0
0	5957	476.8	0
0	5962	477.2	0
0	5967	477.6	0
0	5972	478	0
0	5977	478.4	0
0	5982	478.8	0
0	5987	479.2	0
0	5992	479.6	0
0	5997	480	0
0	6002	480.4	0
0	6007	480.8	0
0	6012	481.2	0
0	6017	481.6	0
0	6022	482	0
0	6027	482.4	0
0	6032	482.8	0
0	6037	483.2	0
0	6042	483.6	0
0	6047	484	0
0	6052	484.4	0
0	6057	484.8	0
0	6062	485.2	0
0	6067	485.6	0
0	6072	486	0
0	6077	486.4	0
0	6082	486.8	0
0	6087	487.2	0
0	6092	487.6	0
0	6097	488	0
0	6102	488.4	0
0	6107	488.8	0
0	6112	489.2	0
0	6117	489.6	0
0	6122	490	0
0	6127	490.4	0
0	6132	490.8	0
0	6137	491.2	0
0	6142	491.6	0
0	6147	492	0
0	6152	492.4	0
0	6157	492.8	0
0	6162	493.2	0
0	6167	493.6	0
0	6172	494	0
0	6177	494.4	0
0	6182	494.8	0
0	6187	495.2	0
0	6192	495.6	0
0	6197	496	0
0	6202	496.4	0
0	6207	496.8	0
0	6212	497.2	0
0	6217	497.6	0
0	6222	498	0
0	6227	498.4	0
0	6232	498.8	0
0	6237	499.2	0
0	6242	499.6	0
0	6247	500	0
0	6252	500.4	0
0	6257	500.8	0
0	6262	501.2	0
0	6267	501.6	0
0	6272	502	0
0	6277	502.4	0
0	6282	502.8	0
0	6287	503.2	0
0	6292	503.6	0
0	6297	504	0
0	6302	504.4	0
0	6307	504.8	0
0	6312	505.2	0
0	6317	505.6	0
0	6322	506	0
0	6327	506.4	0
0	6332	506.8	0
0	6337	507.2	0
0	6342	507.6	0
0	6347	508	0
0	6352	508.4	0
0	6357	508.8	0
0	6362	509.2	0
0	6367	509.6	0
0	6372	510	0
0	6377	510.4	0
0	6382	510.8	0
0	6387	511.2	0
0	6392	511.6	0
0	6397	512	0
0	6402	512.4	0
0	6407	512.8	0
0	6412	513.2	0
0	6417	513.6	0
0	6422	514	0
0	6427	514.4	0
0	6432	514.8	0
0	6437	515.2	0
0	6442	515.6	0
0	6447	516	0
0	6452	516.4	0
0	6457	516.8	0
0	6462	517.2	0
0	6467	517.6	0
0	6472	518	0
0	6477	518.4	0
0	6482	518.8	0
0	6487	519.2	0
0	6492	519.6	0
0	6497	520	0
0	6502	520.4	0
0	6507	520.8	0
0	6512	521.2	0
0	6517	521.6	0
0	6522	522	0
0	6527	522.4	0
0	6532	522.8	0
0	6537	523.2	0
0	6542	523.6	0
0	6547	524	0
0	6552	524.4	0
0	6557	524.8	0
0	6562	525.2	0
0	6567	525.6	0
0	6572	526	0
0	6577	526.4	0
0	6582	526.8	0
0	6587	527.2	0
0	6592	527.6	0
0	6597	528	0
0	6602	528.4	0
0	6607	528.8	0
0	6612	529.2	0
0	6617	529.6	0
0	6622	530	0
0	6627	530.4	0
0	6632	530.8	0
0	6637	531.2	0
0	6642	531.6	0
0	6647	532	0
0	6652	532.4	0
0	6657	532.8	0
0	6662	533.2	0
0	6667	533.6	0
0	6672	534	0
0	6677	534.4	0
0	6682	534.8	0
0	6687	535.2	0
0	6692	535.6	0
0	6697	536	0
0	6702	536.4	0
0	6707	536.8	0
0	6712	537.2	0
0	6717	537.6	0
0	6722	538	0
0	6727	538.4	0
0	6732	538.8	0
0	6737	539.2	0
0	6742	539.6	0
0	6747	540	0
0	6752	540.4	0
0	6757	540.8	0
0	6762	541.2	0
0	6767	541.6	0
0	6772	542	0
0	6777	542.4	0
0	6782	542.8	0
0	6787	543.2	0
0	6792	543.6	0
0	6797	544	0
0	6802	544.4	0
0	6807	544.8	0
0	6812	545.2	0
0	6817	545.6	0
0	6822	546	0
0	6827	546.4	0
0	6832	546.8	0
0	6837	547.2	0
0	6842	547.6	0
0	6847	548	0
0	6852	548.4	0
0	6857	548.8	0
0	6862	549.2	0
0	6867	549.6	0
0	6872	550	0
0	6877	550.4	0
0	6882	550.8	0
0	6887	551.2	0
0	6892	551.6	0
0	6897	552	0
0	6902	552.4	0
0	6907	552.8	0
0	6912	553.2	0
0	6917	553.6	0
0	6922	554	0
0	6927	554.4	0
0	6932	554.8	0
0	6937	555.2	0
0	6942	555.6	0
0	6947	556	0
0	6952	556.4	0
0	6957	556.8	0
0	6962	557.2	0
0	6967	557.6	0
0	6972	558	0
0	6977	558.4	0
0	6982	558.8	0
0	6987	559.2	0
0	6992	559.6	0
0	6997	560	0
0	7002	560.4	0
0	7007	560.8	0
0	7012	561.2	0
0	7017	561.6	0
0	7022	562	0
0	7027	562.4	0
0	7032	562.8	0
0	7037	563.2	0
0	7042	563.6	0
0	7047	564	0
0	7052	564.4	0
0	7057	564.8	0
0	7062	565.2	0
0	7067	565.6	0
0	7072	566	0
0	7077	566.4	0
0	7082	566.8	0
0	7087	567.2	0
0	7092	567.6	0
0	7097	568	0
0	7102	568.4	0
0	7107	568.8	0
0	7112	569.2	0
0	7117	569.6	0
0	7122	570	0
0	7127	570.4	0
0	7132	570.8	0
0	7137	571.2	0
0	7142	571.6	0
0	7147	572	0
0	7152	572.4	0
0	7157	572.8	0
0	7162	573.2	0
0	7167	573.6	0
0	7172	574	0
0	7177	574.4	0
0	7182	574.8	0
0	7187	575.2	0
0	7192	575.6	0
0	7197	576	0
0	7202	576.4	0
0	7207	576.8	0
0	7212	577.2	0
0	7217	577.6	0
0	7222	578	0
0	7227	578.4	0
0	7232	578.8	0
0	7237	579.2	0
0	7242	579.6	0
0	7247	580	0
0	7252	580.4	0
0	7257	580.8	0
0	7262	581.2	0
0	7267	581.6	0
0	7272	582	0
0	7277	582.4	0
0	7282	582.8	0
0	7287	583.2	0
0	7292	583.6	0
0	7297	584	0
0	7302	584.4	0
0	7307	584.8	0
0	7312	585.2	0
0	7317	585.6	0
0	7322	586	0
0	7327	586.4	0
0	7332	586.8	0
0	7337	587.2	0
0	7342	587.6	0
0	7347	588	0
0	7352	588.4	0
0	7357	588.8	0
0	7362	589.2	0
0	7367	589.6	0
0	7372	590	0
0	7377	590.4	0
0	7382	590.8	0
0	7387	591.2	0
0	7392	591.6	0
0	7397	592	0
0	7402	592.4	0
0	7407	592.8	0
0	7412	593.2	0
0	7417	593.6	0
0	7422	594	0
0	7427	594.4	0
0	7432	594.8	0
0	7437	595.2	0
0	7442	595.6	0
0	7447	596	0
0	7452	596.4	0
0	7457	596.8	0
0	7462	597.2	0
0	7467	597.6	0
0	7472	598	0
0	7477	598.4	0
0	7482	598.8	0
0	7487	599.2	0
0	7492	599.6	0
0	7497	600	0
0	7502	600.4	0
0	7507	600.8	0
0	7512	601.2	0
0	7517	601.6	0
0	7522	602	0
0	7527	602.4	0
0	7532	602.8	0
0	7537	603.2	0
0	7542	603.6	0
0	7547	604	0
0	7552	604.4	0
0	7557	604.8	0
0	7562	605.2	0
0	7567	605.6	0
0	7572	606	0
0	7577	606.4	0
0	7582	606.8	0
0	7587	607.2	0
0	7592	607.6	0
0	7597	608	0
0	7602	608.4	0
0	7607	608.8	0
0	7612	609.2	0
0	7617	609.6	0
0	7622	610	0
0	7627	610.4	0
0	7632	610.8	0
0	7637	611.2	0
0	7642	611.6	0
0	7647	612	0
0	7652	612.4	0
0	7657	612.8	0
0	7662	613.2	0
0	7667	613.6	0
0	7672	614	0
0	7677	614.4	0
0	7682	614.8	0
0	7687	615.2	0
0	7692	615.6	0
0	7697	616	0
0	7702	616.4	0
0	7707	616.8	0
0	7712	617.2	0
0	7717	617.6	0
0	7722	618	0
0	7727	618.4	0
0	7732	618.8	0
0	7737	619.2	0
0	7742	619.6	0
0	7747	620	0
0	7752	620.4	0
0	7757	620.8	0
0	7762	621.2	0
0	7767	621.6	0
0	7772	622	0
0	7777	622.4	0
0	7782	622.8	0
0	7787	623.2	0
0	7792	623.6	0
0	7797	624	0
0	7802	624.4	0
0	7807	624.8	0
0	7812	625.2	0
0	7817	625.6	0
0	7822	626	0
0	7827	626.4	0
0	7832	626.8	0
0	7837	627.2	0
0	7842	627.6	0
0	7847	628	0
0	7852	628.4	0
0	7857	628.8	0
0	7862	629.2	0
0	7867	629.6	0
0	7872	630	0
0	7877	630.4	0
0	7882	630.8	0
0	7887	631.2	0
0	7892	631.6	0
0	7897	632	0
0	7902	632.4	0
0	7907	632.8	0
0	7912	633.2	0
0	7917	633.6	0
0	7922	634	0
0	7927	634.4	0
0	7932	634.8	0
0	7937	635.2	0
0	7942	635.6	0
0	7947	636	0
0	7952	636.4	0
0	7957	636.8	0
0	7962	637.2	0
0	7967	637.6	0
0	7972	638	0
0	7977	638.4	0
0	7982	638.8	0
0	7987	639.2	0
0	7992	639.6	0
0	7997	640	0
0	8002	640.4	0
0	8007	640.8	0
0	8012	641.2	0
0	8017	641.6	0
0	8022	642	0
0	8027	642.4	0
0	8032	642.8	0
0	8037	643.2	0
0	8042	643.6	0
0	8047	644	0
0	8052	644.4	0
0	8057	644.8	0
0	8062	645.2	0
0	8067	645.6	0
0	8072	646	0
0	8077	646.4	0
0	8082	646.8	0
0	8087	647.2	0
0	8092	647.6	0
0	8097	648	0
0	8102	648.4	0
0	8107	648.8	0
0	8112	649.2	0
0	8117	649.6	0
0	8122	650	0
0	8127	650.4	0
0	8132	650.8	0
0	8137	651.2	0
0	8142	651.6	0
0	8147	652	0
0	8152	652.4	0
0	8157	652.8	0
0	8162	653.2	0
0	8167	653.6	0
0	8172	654	0
0	8177	654.4	0
0	8182	654.8	0
0	8187	655.2	0
0	8192	655.6	0
0	8197	656	0
0	8202	656.4	0
0	8207	656.8	0
0	8212	657.2	0
0	8217	657.6	0
0	8222	658	0
0	8227	658.4	0
0	8232	658.8	0
0	8237	659.2	0
0	8242	659.6	0
0	8247	660	0
0	8252	660.4	0
0	8257	660.8	0
0	8262	661.2	0
0	8267	661.6	0
0	8272	662	0
0	8277	662.4	0
0	8282	662.8	0
0	8287	663.2	0
0	8292	663.6	0
0	8297	664	0
0	8302	664.4	0
0	8307	664.8	0
0	8312	665.2	0
0	8317	665.6	0
0	8322	666	0
0	8327	666.4	0
0	8332	666.8	0
0	8337	667.2	0
0	8342	667.6	0
0	8347	668	0
0	8352	668.4	0
0	8357	668.8	0
0	8362	669.2	0
0	8367	669.6	0
0	8372	670	0
0	8377	670.4	0
0	8382	670.8	0
0	8387	671.2	0
0	8392	671.6	0
0	8397	672	0
0	8402	672.4	0
0	8407	672.8	0
0	8412	673.2	0
0	8417	673.6	0
0	8422	674	0
0	8427	674.4	0
0	8432	674.8	0
0	8437	675.2	0
0	8442	675.6	0
0	8447	676	0
0	8452	676.4	0
0	8457	676.8	0
0	8462	677.2	0
0	8467	677.6	0
0	8472	678	0
0	8477	678.4	0
0	8482	678.8	0
0	8487	679.2	0
0	8492	679.6	0
0	8497	680	0
0	8502	680.4	0
0	8507	680.8	0
0	8512	681.2	0
0	8517	681.6	0
0	8522	682	0
0	8527	682.4	0
0	8532	682.8	0
0	8537	683.2	0
0	8542	683.6	0
0	8547	684	0
0	8552	684.4	0
0	8557	684.8	0
0	8562	685.2	0
0	8567	685.6	0
0	8572	686	0
0	8577	686.4	0
0	8582	686.8	0
0	8587	687.2	0
0	8592	687.6	0
0	8597	688	0
0	8602	688.4	0
0	8607	688.8	0
0	8612	689.2	0
0	8617	689.6	0
0	8622	690	0
0	8627	690.4	0
0	8632	690.8	0
0	8637	691.2	0
0	8642	691.6	0
0	8647	692	0
0	8652	692.4	0
0	8657	692.8	0
0	8662	693.2	0
0	8667	693.6	0
0	8672	694	0
0	8677	694.4	0
0	8682	694.8	0
0	8687	695.2	0
0	8692	695.6	0
0	8697	696	0
0	8702	696.4	0
0	8707	696.8	0
0	8712	697.2	0
0	8717	697.6	0
0	8722	698	0
0	8727	698.4	0
0	8732	698.8	0
0	8737	699.2	0
0	8742	699.6	0
0	8747	700	0
0	8752	700.4	0
0	8757	700.8	0
0	8762	701.2	0
0	8767	701.6	0
0	8772	702	0
0	8777	702.4	0
0	8782	702.8	0
0	8787	703.2	0
0	8792	703.6	0
0	8797	704	0
0	8802	704.4	0
0	8807	704.8	0
0	8812	705.2	0
0	8817	705.6	0
0	8822	706	0
0	8827	706.4	0
0	8832	706.8	0
0	8837	707.2	0
0	8842	707.6	0
0	8847	708	0
0	8852	708.4	0
0	8857	708.8	0
0	8862	709.2	0
0	8867	709.6	0
0	8872	710	0
0	8877	710.4	0
0	8882	710.8	0
0	8887	711.2	0
0	8892	711.6	0
0	8897	712	0
0	8902	712.4	0
0	8907	712.8	0
0	8912	713.2	0
0	8917	713.6	0
0	8922	714	0
0	8927	714.4	0
0	8932	714.8	0
0	8937	715.2	0
0	8942	715.6	0
0	8947	716	0
0	8952	716.4	0
0	8957	716.8	0
0	8962	717.2	0
0	8967	717.6	0
0	8972	718	0
0	8977	718.4	0
0	8982	718.8	0
0	8987	719.2	0
0	8992	719.6	0
0	8997	720	0
0	9002	720.4	0
0	9007	720.8	0
0	9012	721.2	0
0	9017	721.6	0
0	9022	722	0
0	9027	722.4	0
0	9032	722.8	0
0	9037	723.2	0
0	9042	723.6	0
0	9047	724	0
0	9052	724.4	0
0	9057	724.8	0
0	9062	725.2	0
0	9067	725.6	0
0	9072	726	0
0	9077	726.4	0
0	9082	726.8	0
0	9087	727.2	0
0	9092	727.6	0
0	9097	728	0
0	9102	728.4	0
0	9107	728.8	0
0	9112	729.2	0
0	9117	729.6	0
0	9122	730	0
0	9127	730.4	0
0	9132	730.8	0
0	9137	731.2	0
0	9142	731.6	0
0	9147	732	0
0	9152	732.4	0
0	9157	732.8	0
0	9162	733.2	0
0	9167	733.6	0
0	9172	734	0
0	9177	734.4	0
0	9182	734.8	0
0	9187	735.2	0
0	9192	735.6	0
0	9197	736	0
0	9202	736.4	0
0	9207	736.8	0
0	9212	737.2	0
0	9217	737.6	0
0	9222	738	0
0	9227	738.4	0
0	9232	738.8	0
0	9237	739.2	0
0	9242	739.6	0
0	9247	740	0
0	9252	740.4	0
0	9257	740.8	0
0	9262	741.2	0
0	9267	741.6	0
0	9272	742	0
0	9277	742.4	0
0	9282	742.8	0
0	9287	743.2	0
0	9292	743.6	0
0	9297	744	0
0	9302	744.4	0
0	9307	744.8	0
0	9312	745.2	0
0	9317	745.6	0
0	9322	746	0
0	9327	746.4	0
0	9332	746.8	0
0	9337	747.2	0
0	9342	747.6	0
0	9347	748	0
0	9352	748.4	0
0	9357	748.8	0
0	9362	749.2	0
0	9367	749.6	0
0	9372	750	0
0	9377	750.4	0
0	9382	750.8	0
0	9387	751.2	0
0	9392	751.6	0